<?xml version="1.0" encoding="UTF-8"?>

<!-- generated on 2025-05-08 12:05:33 by Eclipse SUMO GUI Version 1.23.0
<sumoConfiguration xmlns:xsi="http://www.w3.org/2001/XMLSchema-instance" xsi:noNamespaceSchemaLocation="http://sumo.dlr.de/xsd/sumoConfiguration.xsd">

    <input>
        <net-file value="maps/city1.net.xml"/>
        <route-files value="maps/city1.rou.xml"/>
    </input>

    <output>
        <tripinfo-output value="tripinfo.xml"/>
    </output>

    <time>
        <begin value="0"/>
        <end value="200"/>
    </time>

    <report>
        <verbose value="true"/>
        <no-step-log value="true"/>
    </report>

    <traci_server>
        <remote-port value="64048"/>
    </traci_server>

</sumoConfiguration>
-->

<tripinfos xmlns:xsi="http://www.w3.org/2001/XMLSchema-instance" xsi:noNamespaceSchemaLocation="http://sumo.dlr.de/xsd/tripinfo_file.xsd">
    <tripinfo id="13" depart="13.00" departLane="-gneE14_0" departPos="5.10" departSpeed="0.00" departDelay="0.00" arrival="23.00" arrivalLane="-gneE14_0" arrivalPos="89.60" arrivalSpeed="14.27" duration="10.00" routeLength="84.50" waitingTime="0.00" waitingCount="0" stopTime="0.00" timeLoss="3.61" rerouteNo="0" devices="tripinfo_13" vType="DEFAULT_VEHTYPE" speedFactor="1.09" vaporized=""/>
    <tripinfo id="20" depart="20.00" departLane="gneE22_0" departPos="5.10" departSpeed="0.00" departDelay="0.00" arrival="72.00" arrivalLane="-gneE10_0" arrivalPos="96.80" arrivalSpeed="12.83" duration="52.00" routeLength="579.33" waitingTime="0.00" waitingCount="0" stopTime="0.00" timeLoss="5.61" rerouteNo="0" devices="tripinfo_20" vType="DEFAULT_VEHTYPE" speedFactor="0.93" vaporized=""/>
    <tripinfo id="52" depart="52.00" departLane="-gneE29_0" departPos="5.10" departSpeed="0.00" departDelay="0.00" arrival="89.00" arrivalLane="gneE21_0" arrivalPos="87.62" arrivalSpeed="15.14" duration="37.00" routeLength="413.15" waitingTime="0.00" waitingCount="0" stopTime="0.00" timeLoss="8.94" rerouteNo="0" devices="tripinfo_52" vType="DEFAULT_VEHTYPE" speedFactor="1.10" vaporized=""/>
    <tripinfo id="47" depart="49.00" departLane="-gneE13_0" departPos="5.10" departSpeed="0.00" departDelay="2.00" arrival="90.00" arrivalLane="-gneE38_0" arrivalPos="296.80" arrivalSpeed="15.70" duration="41.00" routeLength="490.87" waitingTime="0.00" waitingCount="0" stopTime="0.00" timeLoss="9.62" rerouteNo="0" devices="tripinfo_47" vType="DEFAULT_VEHTYPE" speedFactor="1.17" vaporized=""/>
    <tripinfo id="4" depart="4.00" departLane="-gneE5_0" departPos="5.10" departSpeed="0.00" departDelay="0.00" arrival="91.00" arrivalLane="-gneE1_0" arrivalPos="85.60" arrivalSpeed="12.80" duration="87.00" routeLength="374.92" waitingTime="48.00" waitingCount="1" stopTime="0.00" timeLoss="58.39" rerouteNo="0" devices="tripinfo_4" vType="DEFAULT_VEHTYPE" speedFactor="1.01" vaporized=""/>
    <tripinfo id="8" depart="8.00" departLane="-gneE26_0" departPos="5.10" departSpeed="0.00" departDelay="0.00" arrival="91.00" arrivalLane="gneE14_0" arrivalPos="89.60" arrivalSpeed="13.92" duration="83.00" routeLength="391.59" waitingTime="41.00" waitingCount="2" stopTime="0.00" timeLoss="55.15" rerouteNo="0" devices="tripinfo_8" vType="DEFAULT_VEHTYPE" speedFactor="1.05" vaporized=""/>
    <tripinfo id="0" depart="0.00" departLane="gneE18_0" departPos="5.10" departSpeed="0.00" departDelay="0.00" arrival="93.00" arrivalLane="-gneE1_0" arrivalPos="85.60" arrivalSpeed="13.96" duration="93.00" routeLength="682.01" waitingTime="25.00" waitingCount="2" stopTime="0.00" timeLoss="43.86" rerouteNo="0" devices="tripinfo_0" vType="DEFAULT_VEHTYPE" speedFactor="1.06" vaporized=""/>
    <tripinfo id="53" depart="53.00" departLane="-gneE18_0" departPos="5.10" departSpeed="0.00" departDelay="0.00" arrival="95.00" arrivalLane="-gneE5_0" arrivalPos="85.60" arrivalSpeed="7.70" duration="42.00" routeLength="275.23" waitingTime="3.00" waitingCount="1" stopTime="0.00" timeLoss="19.26" rerouteNo="0" devices="tripinfo_53" vType="DEFAULT_VEHTYPE" speedFactor="0.90" vaporized=""/>
    <tripinfo id="35" depart="41.00" departLane="-gneE25_0" departPos="5.10" departSpeed="0.00" departDelay="6.00" arrival="98.00" arrivalLane="gneE6_0" arrivalPos="92.80" arrivalSpeed="10.87" duration="57.00" routeLength="477.06" waitingTime="1.00" waitingCount="1" stopTime="0.00" timeLoss="16.02" rerouteNo="0" devices="tripinfo_35" vType="DEFAULT_VEHTYPE" speedFactor="0.87" vaporized=""/>
    <tripinfo id="90" depart="90.00" departLane="gneE23_0" departPos="5.10" departSpeed="0.00" departDelay="0.00" arrival="100.00" arrivalLane="gneE23_0" arrivalPos="89.60" arrivalSpeed="13.27" duration="10.00" routeLength="84.50" waitingTime="0.00" waitingCount="0" stopTime="0.00" timeLoss="3.50" rerouteNo="0" devices="tripinfo_90" vType="DEFAULT_VEHTYPE" speedFactor="1.02" vaporized=""/>
    <tripinfo id="33" depart="33.00" departLane="-gneE26_0" departPos="5.10" departSpeed="0.00" departDelay="0.00" arrival="104.00" arrivalLane="-gneE10_0" arrivalPos="96.80" arrivalSpeed="11.07" duration="71.00" routeLength="491.90" waitingTime="13.00" waitingCount="2" stopTime="0.00" timeLoss="27.80" rerouteNo="0" devices="tripinfo_33" vType="DEFAULT_VEHTYPE" speedFactor="0.83" vaporized=""/>
    <tripinfo id="88" depart="89.00" departLane="-gneE17_0" departPos="5.10" departSpeed="0.00" departDelay="1.00" arrival="110.00" arrivalLane="-gneE5_0" arrivalPos="85.60" arrivalSpeed="12.04" duration="21.00" routeLength="182.33" waitingTime="0.00" waitingCount="0" stopTime="0.00" timeLoss="5.99" rerouteNo="0" devices="tripinfo_88" vType="DEFAULT_VEHTYPE" speedFactor="0.91" vaporized=""/>
    <tripinfo id="24" depart="24.00" departLane="gneE18_0" departPos="5.10" departSpeed="0.00" departDelay="0.00" arrival="112.00" arrivalLane="-gneE35_0" arrivalPos="292.80" arrivalSpeed="11.96" duration="88.00" routeLength="889.00" waitingTime="0.00" waitingCount="0" stopTime="0.00" timeLoss="12.05" rerouteNo="0" devices="tripinfo_24" vType="DEFAULT_VEHTYPE" speedFactor="0.88" vaporized=""/>
    <tripinfo id="26" depart="26.00" departLane="-gneE29_0" departPos="5.10" departSpeed="0.00" departDelay="0.00" arrival="126.00" arrivalLane="gneE5_0" arrivalPos="85.60" arrivalSpeed="12.67" duration="100.00" routeLength="707.67" waitingTime="24.00" waitingCount="2" stopTime="0.00" timeLoss="42.19" rerouteNo="0" devices="tripinfo_26" vType="DEFAULT_VEHTYPE" speedFactor="0.94" vaporized=""/>
    <tripinfo id="94" depart="94.00" departLane="-gneE24_0" departPos="5.10" departSpeed="0.00" departDelay="0.00" arrival="131.00" arrivalLane="-gneE6_0" arrivalPos="92.80" arrivalSpeed="10.32" duration="37.00" routeLength="380.39" waitingTime="0.00" waitingCount="0" stopTime="0.00" timeLoss="7.45" rerouteNo="0" devices="tripinfo_94" vType="DEFAULT_VEHTYPE" speedFactor="0.97" vaporized=""/>
    <tripinfo id="67" depart="67.00" departLane="-gneE14_0" departPos="5.10" departSpeed="0.00" departDelay="0.00" arrival="137.00" arrivalLane="-gneE9_0" arrivalPos="89.60" arrivalSpeed="10.69" duration="70.00" routeLength="688.08" waitingTime="0.00" waitingCount="0" stopTime="0.00" timeLoss="10.07" rerouteNo="0" devices="tripinfo_67" vType="DEFAULT_VEHTYPE" speedFactor="0.85" vaporized=""/>
    <tripinfo id="97" depart="97.00" departLane="-gneE6_0" departPos="5.10" departSpeed="0.00" departDelay="0.00" arrival="137.00" arrivalLane="gneE34_0" arrivalPos="85.60" arrivalSpeed="14.15" duration="40.00" routeLength="282.33" waitingTime="9.00" waitingCount="1" stopTime="0.00" timeLoss="19.48" rerouteNo="0" devices="tripinfo_97" vType="DEFAULT_VEHTYPE" speedFactor="1.06" vaporized=""/>
    <tripinfo id="44" depart="44.00" departLane="-gneE14_0" departPos="5.10" departSpeed="0.00" departDelay="0.00" arrival="145.00" arrivalLane="-gneE11_0" arrivalPos="92.80" arrivalSpeed="15.24" duration="101.00" routeLength="885.52" waitingTime="12.00" waitingCount="2" stopTime="0.00" timeLoss="43.18" rerouteNo="0" devices="tripinfo_44" vType="DEFAULT_VEHTYPE" speedFactor="1.15" vaporized=""/>
    <tripinfo id="27" depart="27.00" departLane="gneE19_0" departPos="5.10" departSpeed="0.00" departDelay="0.00" arrival="150.00" arrivalLane="gneE17_0" arrivalPos="92.80" arrivalSpeed="15.20" duration="123.00" routeLength="585.39" waitingTime="65.00" waitingCount="1" stopTime="0.00" timeLoss="83.52" rerouteNo="0" devices="tripinfo_27" vType="DEFAULT_VEHTYPE" speedFactor="1.16" vaporized=""/>
    <tripinfo id="127" depart="141.00" departLane="gneE9_0" departPos="5.10" departSpeed="0.00" departDelay="14.00" arrival="151.00" arrivalLane="gneE9_0" arrivalPos="89.60" arrivalSpeed="11.33" duration="10.00" routeLength="84.50" waitingTime="0.00" waitingCount="0" stopTime="0.00" timeLoss="3.07" rerouteNo="0" devices="tripinfo_127" vType="DEFAULT_VEHTYPE" speedFactor="0.91" vaporized=""/>
    <tripinfo id="117" depart="117.00" departLane="-gneE27_0" departPos="5.10" departSpeed="0.00" departDelay="0.00" arrival="152.00" arrivalLane="-gneE17_0" arrivalPos="92.80" arrivalSpeed="13.69" duration="35.00" routeLength="387.59" waitingTime="0.00" waitingCount="0" stopTime="0.00" timeLoss="6.06" rerouteNo="0" devices="tripinfo_117" vType="DEFAULT_VEHTYPE" speedFactor="1.02" vaporized=""/>
    <tripinfo id="74" depart="75.00" departLane="-gneE24_0" departPos="5.10" departSpeed="0.00" departDelay="1.00" arrival="154.00" arrivalLane="-gneE3_0" arrivalPos="185.60" arrivalSpeed="11.36" duration="79.00" routeLength="674.81" waitingTime="3.00" waitingCount="1" stopTime="0.00" timeLoss="22.03" rerouteNo="0" devices="tripinfo_74" vType="DEFAULT_VEHTYPE" speedFactor="0.90" vaporized=""/>
    <tripinfo id="76" depart="76.00" departLane="-gneE6_0" departPos="5.10" departSpeed="0.00" departDelay="0.00" arrival="154.00" arrivalLane="gneE10_0" arrivalPos="96.80" arrivalSpeed="15.25" duration="78.00" routeLength="596.03" waitingTime="24.00" waitingCount="1" stopTime="0.00" timeLoss="38.92" rerouteNo="0" devices="tripinfo_76" vType="DEFAULT_VEHTYPE" speedFactor="1.14" vaporized=""/>
    <tripinfo id="2" depart="2.00" departLane="gneE24_0" departPos="5.10" departSpeed="0.00" departDelay="0.00" arrival="156.00" arrivalLane="gneE23_0" arrivalPos="89.60" arrivalSpeed="12.29" duration="154.00" routeLength="768.59" waitingTime="66.00" waitingCount="3" stopTime="0.00" timeLoss="93.00" rerouteNo="0" devices="tripinfo_2" vType="DEFAULT_VEHTYPE" speedFactor="0.94" vaporized=""/>
    <tripinfo id="66" depart="67.00" departLane="gneE38_0" departPos="5.10" departSpeed="0.00" departDelay="1.00" arrival="159.00" arrivalLane="gneE6_0" arrivalPos="92.80" arrivalSpeed="10.92" duration="92.00" routeLength="690.87" waitingTime="18.00" waitingCount="1" stopTime="0.00" timeLoss="31.64" rerouteNo="0" devices="tripinfo_66" vType="DEFAULT_VEHTYPE" speedFactor="0.85" vaporized=""/>
    <tripinfo id="73" depart="73.00" departLane="gneE10_0" departPos="5.10" departSpeed="0.00" departDelay="0.00" arrival="161.00" arrivalLane="gneE26_0" arrivalPos="92.80" arrivalSpeed="12.68" duration="88.00" routeLength="491.90" waitingTime="41.00" waitingCount="1" stopTime="0.00" timeLoss="51.62" rerouteNo="0" devices="tripinfo_73" vType="DEFAULT_VEHTYPE" speedFactor="1.00" vaporized=""/>
    <tripinfo id="138" depart="138.00" departLane="-gneE17_0" departPos="5.10" departSpeed="0.00" departDelay="0.00" arrival="162.00" arrivalLane="gneE12_0" arrivalPos="85.60" arrivalSpeed="10.16" duration="24.00" routeLength="187.49" waitingTime="0.00" waitingCount="0" stopTime="0.00" timeLoss="9.85" rerouteNo="0" devices="tripinfo_138" vType="DEFAULT_VEHTYPE" speedFactor="1.01" vaporized=""/>
    <tripinfo id="85" depart="85.00" departLane="gneE5_0" departPos="5.10" departSpeed="0.00" departDelay="0.00" arrival="163.00" arrivalLane="gneE13_0" arrivalPos="92.80" arrivalSpeed="12.27" duration="78.00" routeLength="287.49" waitingTime="43.00" waitingCount="1" stopTime="0.00" timeLoss="55.12" rerouteNo="0" devices="tripinfo_85" vType="DEFAULT_VEHTYPE" speedFactor="0.94" vaporized=""/>
    <tripinfo id="5" depart="5.00" departLane="-gneE25_0" departPos="5.10" departSpeed="0.00" departDelay="0.00" arrival="164.00" arrivalLane="gneE1_0" arrivalPos="85.60" arrivalSpeed="5.93" duration="159.00" routeLength="774.81" waitingTime="80.00" waitingCount="3" stopTime="0.00" timeLoss="105.16" rerouteNo="0" devices="tripinfo_5" vType="DEFAULT_VEHTYPE" speedFactor="1.08" vaporized=""/>
    <tripinfo id="60" depart="60.00" departLane="gneE25_0" departPos="5.10" departSpeed="0.00" departDelay="0.00" arrival="164.00" arrivalLane="gneE11_0" arrivalPos="92.80" arrivalSpeed="15.08" duration="104.00" routeLength="589.00" waitingTime="42.00" waitingCount="1" stopTime="0.00" timeLoss="62.30" rerouteNo="0" devices="tripinfo_60" vType="DEFAULT_VEHTYPE" speedFactor="1.09" vaporized=""/>
    <tripinfo id="30" depart="30.00" departLane="gneE9_0" departPos="5.10" departSpeed="0.00" departDelay="0.00" arrival="166.00" arrivalLane="gneE2_0" arrivalPos="185.60" arrivalSpeed="7.27" duration="136.00" routeLength="379.13" waitingTime="96.00" waitingCount="1" stopTime="0.00" timeLoss="107.04" rerouteNo="0" devices="tripinfo_30" vType="DEFAULT_VEHTYPE" speedFactor="0.97" vaporized=""/>
    <tripinfo id="78" depart="78.00" departLane="-gneE32_0" departPos="5.10" departSpeed="0.00" departDelay="0.00" arrival="168.00" arrivalLane="gneE14_0" arrivalPos="89.60" arrivalSpeed="14.06" duration="90.00" routeLength="912.38" waitingTime="0.00" waitingCount="0" stopTime="0.00" timeLoss="24.43" rerouteNo="0" devices="tripinfo_78" vType="DEFAULT_VEHTYPE" speedFactor="1.02" vaporized=""/>
    <tripinfo id="111" depart="120.00" departLane="gneE10_0" departPos="5.10" departSpeed="0.00" departDelay="9.00" arrival="169.00" arrivalLane="gneE27_0" arrivalPos="92.80" arrivalSpeed="13.29" duration="49.00" routeLength="486.53" waitingTime="0.00" waitingCount="0" stopTime="0.00" timeLoss="11.81" rerouteNo="0" devices="tripinfo_111" vType="DEFAULT_VEHTYPE" speedFactor="0.98" vaporized=""/>
    <tripinfo id="56" depart="56.00" departLane="gneE0_0" departPos="5.10" departSpeed="0.00" departDelay="0.00" arrival="170.00" arrivalLane="-gneE20_0" arrivalPos="92.80" arrivalSpeed="14.66" duration="114.00" routeLength="284.16" waitingTime="84.00" waitingCount="1" stopTime="0.00" timeLoss="94.32" rerouteNo="0" devices="tripinfo_56" vType="DEFAULT_VEHTYPE" speedFactor="1.09" vaporized=""/>
    <tripinfo id="102" depart="102.00" departLane="-gneE9_0" departPos="5.10" departSpeed="0.00" departDelay="0.00" arrival="172.00" arrivalLane="-gneE22_0" arrivalPos="85.60" arrivalSpeed="12.49" duration="70.00" routeLength="681.83" waitingTime="4.00" waitingCount="1" stopTime="0.00" timeLoss="17.84" rerouteNo="0" devices="tripinfo_102" vType="DEFAULT_VEHTYPE" speedFactor="0.98" vaporized=""/>
    <tripinfo id="68" depart="68.00" departLane="-gneE13_0" departPos="5.10" departSpeed="0.00" departDelay="0.00" arrival="179.00" arrivalLane="gneE28_0" arrivalPos="216.45" arrivalSpeed="15.71" duration="111.00" routeLength="798.93" waitingTime="30.00" waitingCount="2" stopTime="0.00" timeLoss="60.02" rerouteNo="0" devices="tripinfo_68" vType="DEFAULT_VEHTYPE" speedFactor="1.17" vaporized=""/>
    <tripinfo id="29" depart="31.00" departLane="-gneE22_0" departPos="5.10" departSpeed="0.00" departDelay="2.00" arrival="182.00" arrivalLane="-gneE38_0" arrivalPos="296.80" arrivalSpeed="13.14" duration="151.00" routeLength="883.56" waitingTime="70.00" waitingCount="1" stopTime="0.00" timeLoss="86.00" rerouteNo="0" devices="tripinfo_29" vType="DEFAULT_VEHTYPE" speedFactor="1.01" vaporized=""/>
    <tripinfo id="96" depart="96.00" departLane="-gneE27_0" departPos="5.10" departSpeed="0.00" departDelay="0.00" arrival="187.00" arrivalLane="gneE5_0" arrivalPos="85.60" arrivalSpeed="12.80" duration="91.00" routeLength="587.38" waitingTime="31.00" waitingCount="2" stopTime="0.00" timeLoss="44.77" rerouteNo="0" devices="tripinfo_96" vType="DEFAULT_VEHTYPE" speedFactor="0.94" vaporized=""/>
    <tripinfo id="83" depart="83.00" departLane="-gneE27_0" departPos="5.10" departSpeed="0.00" departDelay="0.00" arrival="193.00" arrivalLane="gneE22_0" arrivalPos="85.60" arrivalSpeed="11.82" duration="110.00" routeLength="771.58" waitingTime="10.00" waitingCount="3" stopTime="0.00" timeLoss="51.87" rerouteNo="0" devices="tripinfo_83" vType="DEFAULT_VEHTYPE" speedFactor="1.02" vaporized=""/>
    <tripinfo id="6" depart="6.00" departLane="-gneE10_0" departPos="5.10" departSpeed="0.00" departDelay="0.00" arrival="195.00" arrivalLane="-gneE21_0" arrivalPos="87.62" arrivalSpeed="13.68" duration="189.00" routeLength="780.42" waitingTime="108.00" waitingCount="1" stopTime="0.00" timeLoss="132.70" rerouteNo="0" devices="tripinfo_6" vType="DEFAULT_VEHTYPE" speedFactor="1.03" vaporized=""/>
    <tripinfo id="129" depart="129.00" departLane="-gneE28_0" departPos="5.10" departSpeed="0.00" departDelay="0.00" arrival="196.00" arrivalLane="gneE5_0" arrivalPos="85.60" arrivalSpeed="14.32" duration="67.00" routeLength="604.32" waitingTime="3.00" waitingCount="1" stopTime="0.00" timeLoss="24.71" rerouteNo="0" devices="tripinfo_129" vType="DEFAULT_VEHTYPE" speedFactor="1.10" vaporized=""/>
    <tripinfo id="31" depart="31.00" departLane="gneE11_0" departPos="5.10" departSpeed="0.00" departDelay="0.00" arrival="197.00" arrivalLane="gneE23_0" arrivalPos="89.60" arrivalSpeed="11.69" duration="166.00" routeLength="875.51" waitingTime="77.00" waitingCount="1" stopTime="0.00" timeLoss="94.14" rerouteNo="0" devices="tripinfo_31" vType="DEFAULT_VEHTYPE" speedFactor="0.89" vaporized=""/>
    <tripinfo id="16" depart="16.00" departLane="gneE10_0" departPos="5.10" departSpeed="0.00" departDelay="0.00" arrival="198.00" arrivalLane="gneE8_0" arrivalPos="85.60" arrivalSpeed="14.29" duration="182.00" routeLength="683.97" waitingTime="103.00" waitingCount="3" stopTime="0.00" timeLoss="132.75" rerouteNo="0" devices="tripinfo_16" vType="DEFAULT_VEHTYPE" speedFactor="1.05" vaporized=""/>
    <tripinfo id="71" depart="71.00" departLane="-gneE28_0" departPos="5.10" departSpeed="0.00" departDelay="0.00" arrival="198.00" arrivalLane="gneE34_0" arrivalPos="85.60" arrivalSpeed="14.59" duration="127.00" routeLength="699.16" waitingTime="60.00" waitingCount="1" stopTime="0.00" timeLoss="78.68" rerouteNo="0" devices="tripinfo_71" vType="DEFAULT_VEHTYPE" speedFactor="1.10" vaporized=""/>
    <tripinfo id="43" depart="43.00" departLane="gneE9_0" departPos="5.10" departSpeed="0.00" departDelay="0.00" arrival="200.00" arrivalLane="gneE1_0" arrivalPos="85.60" arrivalSpeed="15.61" duration="157.00" routeLength="778.50" waitingTime="85.00" waitingCount="2" stopTime="0.00" timeLoss="107.15" rerouteNo="0" devices="tripinfo_43" vType="DEFAULT_VEHTYPE" speedFactor="1.18" vaporized=""/>
    <tripinfo id="84" depart="88.00" departLane="-gneE25_0" departPos="5.10" departSpeed="0.00" departDelay="4.00" arrival="200.00" arrivalLane="-gneE18_0" arrivalPos="92.80" arrivalSpeed="13.51" duration="112.00" routeLength="766.42" waitingTime="24.00" waitingCount="3" stopTime="0.00" timeLoss="52.81" rerouteNo="0" devices="tripinfo_84" vType="DEFAULT_VEHTYPE" speedFactor="0.99" vaporized=""/>
    <tripinfo id="128" depart="129.00" departLane="-gneE13_0" departPos="5.10" departSpeed="0.00" departDelay="1.00" arrival="201.00" arrivalLane="-gneE22_0" arrivalPos="85.60" arrivalSpeed="10.49" duration="72.00" routeLength="476.85" waitingTime="19.00" waitingCount="1" stopTime="0.00" timeLoss="38.96" rerouteNo="0" devices="tripinfo_128" vType="DEFAULT_VEHTYPE" speedFactor="1.12" vaporized=""/>
    <tripinfo id="11" depart="11.00" departLane="-gneE32_0" departPos="5.10" departSpeed="0.00" departDelay="0.00" arrival="203.00" arrivalLane="-gneE19_0" arrivalPos="92.80" arrivalSpeed="11.85" duration="192.00" routeLength="1010.21" waitingTime="81.00" waitingCount="2" stopTime="0.00" timeLoss="103.82" rerouteNo="0" devices="tripinfo_11" vType="DEFAULT_VEHTYPE" speedFactor="0.86" vaporized=""/>
    <tripinfo id="179" depart="179.00" departLane="-gneE17_0" departPos="5.10" departSpeed="0.00" departDelay="0.00" arrival="205.00" arrivalLane="-gneE5_0" arrivalPos="85.60" arrivalSpeed="10.95" duration="26.00" routeLength="182.33" waitingTime="0.00" waitingCount="0" stopTime="0.00" timeLoss="12.93" rerouteNo="0" devices="tripinfo_179" vType="DEFAULT_VEHTYPE" speedFactor="1.07" vaporized=""/>
    <tripinfo id="126" depart="126.00" departLane="-gneE13_0" departPos="5.10" departSpeed="0.00" departDelay="0.00" arrival="209.00" arrivalLane="-gneE7_0" arrivalPos="92.80" arrivalSpeed="13.49" duration="83.00" routeLength="583.84" waitingTime="21.00" waitingCount="1" stopTime="0.00" timeLoss="38.12" rerouteNo="0" devices="tripinfo_126" vType="DEFAULT_VEHTYPE" speedFactor="1.01" vaporized=""/>
    <tripinfo id="49" depart="49.00" departLane="gneE8_0" departPos="5.10" departSpeed="0.00" departDelay="0.00" arrival="210.00" arrivalLane="gneE34_0" arrivalPos="85.60" arrivalSpeed="13.00" duration="161.00" routeLength="781.73" waitingTime="78.00" waitingCount="3" stopTime="0.00" timeLoss="104.56" rerouteNo="0" devices="tripinfo_49" vType="DEFAULT_VEHTYPE" speedFactor="1.02" vaporized=""/>
    <tripinfo id="103" depart="103.00" departLane="-gneE4_0" departPos="5.10" departSpeed="0.00" departDelay="0.00" arrival="215.00" arrivalLane="-gneE11_0" arrivalPos="92.80" arrivalSpeed="8.16" duration="112.00" routeLength="781.52" waitingTime="29.00" waitingCount="2" stopTime="0.00" timeLoss="53.32" rerouteNo="0" devices="tripinfo_103" vType="DEFAULT_VEHTYPE" speedFactor="1.01" vaporized=""/>
    <tripinfo id="134" depart="134.00" departLane="gneE19_0" departPos="5.10" departSpeed="0.00" departDelay="0.00" arrival="215.00" arrivalLane="-gneE0_0" arrivalPos="92.80" arrivalSpeed="13.15" duration="81.00" routeLength="394.48" waitingTime="34.00" waitingCount="2" stopTime="0.00" timeLoss="48.98" rerouteNo="0" devices="tripinfo_134" vType="DEFAULT_VEHTYPE" speedFactor="0.95" vaporized=""/>
    <tripinfo id="169" depart="170.00" departLane="-gneE7_0" departPos="5.10" departSpeed="0.00" departDelay="1.00" arrival="215.00" arrivalLane="-gneE3_0" arrivalPos="185.60" arrivalSpeed="13.61" duration="45.00" routeLength="475.02" waitingTime="0.00" waitingCount="0" stopTime="0.00" timeLoss="10.69" rerouteNo="0" devices="tripinfo_169" vType="DEFAULT_VEHTYPE" speedFactor="1.06" vaporized=""/>
    <tripinfo id="168" depart="168.00" departLane="-gneE26_0" departPos="5.10" departSpeed="0.00" departDelay="0.00" arrival="216.00" arrivalLane="gneE31_0" arrivalPos="94.82" arrivalSpeed="13.04" duration="48.00" routeLength="478.36" waitingTime="0.00" waitingCount="0" stopTime="0.00" timeLoss="12.75" rerouteNo="0" devices="tripinfo_168" vType="DEFAULT_VEHTYPE" speedFactor="1.02" vaporized=""/>
    <tripinfo id="63" depart="65.00" departLane="-gneE10_0" departPos="5.10" departSpeed="0.00" departDelay="2.00" arrival="219.00" arrivalLane="gneE5_0" arrivalPos="85.60" arrivalSpeed="13.03" duration="154.00" routeLength="573.14" waitingTime="83.00" waitingCount="2" stopTime="0.00" timeLoss="111.21" rerouteNo="0" devices="tripinfo_63" vType="DEFAULT_VEHTYPE" speedFactor="1.00" vaporized=""/>
    <tripinfo id="80" depart="80.00" departLane="-gneE13_0" departPos="5.10" departSpeed="0.00" departDelay="0.00" arrival="219.00" arrivalLane="gneE2_0" arrivalPos="185.60" arrivalSpeed="10.12" duration="139.00" routeLength="678.61" waitingTime="55.00" waitingCount="3" stopTime="0.00" timeLoss="86.91" rerouteNo="0" devices="tripinfo_80" vType="DEFAULT_VEHTYPE" speedFactor="0.97" vaporized=""/>
    <tripinfo id="64" depart="64.00" departLane="gneE38_0" departPos="5.10" departSpeed="0.00" departDelay="0.00" arrival="222.00" arrivalLane="gneE32_0" arrivalPos="219.65" arrivalSpeed="11.46" duration="158.00" routeLength="1210.15" waitingTime="34.00" waitingCount="2" stopTime="0.00" timeLoss="57.57" rerouteNo="0" devices="tripinfo_64" vType="DEFAULT_VEHTYPE" speedFactor="0.90" vaporized=""/>
    <tripinfo id="58" depart="58.00" departLane="-gneE30_0" departPos="5.10" departSpeed="0.00" departDelay="0.00" arrival="223.00" arrivalLane="gneE2_0" arrivalPos="185.60" arrivalSpeed="8.20" duration="165.00" routeLength="978.81" waitingTime="45.00" waitingCount="4" stopTime="0.00" timeLoss="96.22" rerouteNo="0" devices="tripinfo_58" vType="DEFAULT_VEHTYPE" speedFactor="1.04" vaporized=""/>
    <tripinfo id="136" depart="136.00" departLane="gneE2_0" departPos="5.10" departSpeed="0.00" departDelay="0.00" arrival="224.00" arrivalLane="gneE6_0" arrivalPos="92.80" arrivalSpeed="11.28" duration="88.00" routeLength="287.70" waitingTime="47.00" waitingCount="2" stopTime="0.00" timeLoss="64.65" rerouteNo="0" devices="tripinfo_136" vType="DEFAULT_VEHTYPE" speedFactor="0.89" vaporized=""/>
    <tripinfo id="65" depart="65.00" departLane="-gneE30_0" departPos="5.10" departSpeed="0.00" departDelay="0.00" arrival="225.00" arrivalLane="-gneE11_0" arrivalPos="92.80" arrivalSpeed="11.90" duration="160.00" routeLength="1183.55" waitingTime="27.00" waitingCount="3" stopTime="0.00" timeLoss="59.04" rerouteNo="0" devices="tripinfo_65" vType="DEFAULT_VEHTYPE" speedFactor="0.88" vaporized=""/>
    <tripinfo id="115" depart="115.00" departLane="-gneE14_0" departPos="5.10" departSpeed="0.00" departDelay="0.00" arrival="225.00" arrivalLane="-gneE20_0" arrivalPos="92.80" arrivalSpeed="14.09" duration="110.00" routeLength="591.49" waitingTime="49.00" waitingCount="1" stopTime="0.00" timeLoss="67.23" rerouteNo="0" devices="tripinfo_115" vType="DEFAULT_VEHTYPE" speedFactor="1.02" vaporized=""/>
    <tripinfo id="148" depart="148.00" departLane="-gneE5_0" departPos="5.10" departSpeed="0.00" departDelay="0.00" arrival="228.00" arrivalLane="-gneE0_0" arrivalPos="92.80" arrivalSpeed="15.11" duration="80.00" routeLength="487.49" waitingTime="31.00" waitingCount="1" stopTime="0.00" timeLoss="46.59" rerouteNo="0" devices="tripinfo_148" vType="DEFAULT_VEHTYPE" speedFactor="1.10" vaporized=""/>
    <tripinfo id="100" depart="100.00" departLane="gneE8_0" departPos="5.10" departSpeed="0.00" departDelay="0.00" arrival="238.00" arrivalLane="gneE5_0" arrivalPos="85.60" arrivalSpeed="11.95" duration="138.00" routeLength="1081.51" waitingTime="28.00" waitingCount="2" stopTime="0.00" timeLoss="59.90" rerouteNo="0" devices="tripinfo_100" vType="DEFAULT_VEHTYPE" speedFactor="1.03" vaporized=""/>
    <tripinfo id="124" depart="124.00" departLane="gneE2_0" departPos="5.10" departSpeed="0.00" departDelay="0.00" arrival="238.00" arrivalLane="-gneE3_0" arrivalPos="185.60" arrivalSpeed="14.91" duration="114.00" routeLength="480.08" waitingTime="58.00" waitingCount="2" stopTime="0.00" timeLoss="80.11" rerouteNo="0" devices="tripinfo_124" vType="DEFAULT_VEHTYPE" speedFactor="1.09" vaporized=""/>
    <tripinfo id="125" depart="125.00" departLane="-gneE31_0" departPos="5.10" departSpeed="0.00" departDelay="0.00" arrival="238.00" arrivalLane="gneE28_0" arrivalPos="216.45" arrivalSpeed="14.34" duration="113.00" routeLength="503.77" waitingTime="62.00" waitingCount="1" stopTime="0.00" timeLoss="76.59" rerouteNo="0" devices="tripinfo_125" vType="DEFAULT_VEHTYPE" speedFactor="1.06" vaporized=""/>
    <tripinfo id="194" depart="194.00" departLane="gneE6_0" departPos="5.10" departSpeed="0.00" departDelay="0.00" arrival="238.00" arrivalLane="gneE23_0" arrivalPos="89.60" arrivalSpeed="15.26" duration="44.00" routeLength="284.60" waitingTime="14.00" waitingCount="1" stopTime="0.00" timeLoss="26.14" rerouteNo="0" devices="tripinfo_194" vType="DEFAULT_VEHTYPE" speedFactor="1.16" vaporized=""/>
    <tripinfo id="163" depart="163.00" departLane="-gneE32_0" departPos="5.10" departSpeed="0.00" departDelay="0.00" arrival="241.00" arrivalLane="gneE5_0" arrivalPos="85.60" arrivalSpeed="12.59" duration="78.00" routeLength="708.38" waitingTime="2.00" waitingCount="1" stopTime="0.00" timeLoss="21.26" rerouteNo="0" devices="tripinfo_163" vType="DEFAULT_VEHTYPE" speedFactor="0.94" vaporized=""/>
    <tripinfo id="70" depart="70.00" departLane="-gneE8_0" departPos="5.10" departSpeed="0.00" departDelay="0.00" arrival="244.00" arrivalLane="gneE12_0" arrivalPos="85.60" arrivalSpeed="5.27" duration="174.00" routeLength="469.76" waitingTime="117.00" waitingCount="2" stopTime="0.00" timeLoss="139.12" rerouteNo="0" devices="tripinfo_70" vType="DEFAULT_VEHTYPE" speedFactor="1.02" vaporized=""/>
    <tripinfo id="149" depart="149.00" departLane="-gneE13_0" departPos="5.10" departSpeed="0.00" departDelay="0.00" arrival="244.00" arrivalLane="gneE36_0" arrivalPos="292.80" arrivalSpeed="12.36" duration="95.00" routeLength="784.16" waitingTime="7.00" waitingCount="2" stopTime="0.00" timeLoss="31.29" rerouteNo="0" devices="tripinfo_149" vType="DEFAULT_VEHTYPE" speedFactor="0.92" vaporized=""/>
    <tripinfo id="215" depart="215.00" departLane="-gneE17_0" departPos="5.10" departSpeed="0.00" departDelay="0.00" arrival="244.00" arrivalLane="-gneE5_0" arrivalPos="85.60" arrivalSpeed="4.49" duration="29.00" routeLength="182.33" waitingTime="6.00" waitingCount="1" stopTime="0.00" timeLoss="16.24" rerouteNo="0" devices="tripinfo_215" vType="DEFAULT_VEHTYPE" speedFactor="1.06" vaporized=""/>
    <tripinfo id="130" depart="130.00" departLane="gneE38_0" departPos="5.10" departSpeed="0.00" departDelay="0.00" arrival="246.00" arrivalLane="gneE36_0" arrivalPos="292.80" arrivalSpeed="13.87" duration="116.00" routeLength="1090.87" waitingTime="13.00" waitingCount="1" stopTime="0.00" timeLoss="40.03" rerouteNo="0" devices="tripinfo_130" vType="DEFAULT_VEHTYPE" speedFactor="1.06" vaporized=""/>
    <tripinfo id="106" depart="106.00" departLane="-gneE7_0" departPos="5.10" departSpeed="0.00" departDelay="0.00" arrival="250.00" arrivalLane="-gneE5_0" arrivalPos="85.60" arrivalSpeed="9.47" duration="144.00" routeLength="981.62" waitingTime="30.00" waitingCount="1" stopTime="0.00" timeLoss="70.12" rerouteNo="0" devices="tripinfo_106" vType="DEFAULT_VEHTYPE" speedFactor="1.00" vaporized=""/>